HEADER
"PSFversion" "1.00"
"Log Generator" "drlLog rev. 1.0"
"Log Time Stamp" "Fri Nov  7 01:21:31 2025"
"psfversion" "1.4.0"
"simulator" "spectre"
"version" "23.1.0.242.isr1"
"date" "1:21:31 AM, Fri Nov 7, 2025"
"design" "// Stavros Stathoudakis"
"signalNameType" "spectre"
"simMode" "Spectre"
"measdgt" 0
"ingold" 2
"sst2usecolon" 0
TYPE
"analysisInst" STRUCT(
"analysisType" STRING *
"dataFile" STRING *
"format" STRING *
"parent" STRING *
"sweepVariable" ARRAY ( * ) STRING *
"description" STRING *
)
VALUE
"transient1-tran" "analysisInst" (
"tran"
"transient1.tran.tran"
"PSF"
""
("time")
"Transient Analysis `transient1': time = (0 s -> 2 ns)"
) PROP(
"data_type" "swept_scalar"
)

"transient2-tran" "analysisInst" (
"tran"
"transient2.tran.tran"
"PSF"
""
("time")
"Transient Analysis `transient2': time = (0 s -> 2 ns)"
) PROP(
"data_type" "swept_scalar"
)

"transient3-tran" "analysisInst" (
"tran"
"transient3.tran.tran"
"PSF"
""
("time")
"Transient Analysis `transient3': time = (0 s -> 2 ns)"
) PROP(
"data_type" "swept_scalar"
)

"transient4-tran" "analysisInst" (
"tran"
"transient4.tran.tran"
"PSF"
""
("time")
"Transient Analysis `transient4': time = (0 s -> 2 ns)"
) PROP(
"data_type" "swept_scalar"
)

"transient5-tran" "analysisInst" (
"tran"
"transient5.tran.tran"
"PSF"
""
("time")
"Transient Analysis `transient5': time = (0 s -> 2 ns)"
) PROP(
"data_type" "swept_scalar"
)

"transient6-tran" "analysisInst" (
"tran"
"transient6.tran.tran"
"PSF"
""
("time")
"Transient Analysis `transient6': time = (0 s -> 2 ns)"
) PROP(
"data_type" "swept_scalar"
)

"transient7-tran" "analysisInst" (
"tran"
"transient7.tran.tran"
"PSF"
""
("time")
"Transient Analysis `transient7': time = (0 s -> 2 ns)"
) PROP(
"data_type" "swept_scalar"
)

"transient8-tran" "analysisInst" (
"tran"
"transient8.tran.tran"
"PSF"
""
("time")
"Transient Analysis `transient8': time = (0 s -> 2 ns)"
) PROP(
"data_type" "swept_scalar"
)

"transient9-tran" "analysisInst" (
"tran"
"transient9.tran.tran"
"PSF"
""
("time")
"Transient Analysis `transient9': time = (0 s -> 2 ns)"
) PROP(
"data_type" "swept_scalar"
)

"transient10-tran" "analysisInst" (
"tran"
"transient10.tran.tran"
"PSF"
""
("time")
"Transient Analysis `transient10': time = (0 s -> 2 ns)"
) PROP(
"data_type" "swept_scalar"
)

"transient11-tran" "analysisInst" (
"tran"
"transient11.tran.tran"
"PSF"
""
("time")
"Transient Analysis `transient11': time = (0 s -> 2 ns)"
) PROP(
"data_type" "swept_scalar"
)

"transient12-tran" "analysisInst" (
"tran"
"transient12.tran.tran"
"PSF"
""
("time")
"Transient Analysis `transient12': time = (0 s -> 2 ns)"
) PROP(
"data_type" "swept_scalar"
)

"transient13-tran" "analysisInst" (
"tran"
"transient13.tran.tran"
"PSF"
""
("time")
"Transient Analysis `transient13': time = (0 s -> 2 ns)"
) PROP(
"data_type" "swept_scalar"
)

"transient14-tran" "analysisInst" (
"tran"
"transient14.tran.tran"
"PSF"
""
("time")
"Transient Analysis `transient14': time = (0 s -> 2 ns)"
) PROP(
"data_type" "swept_scalar"
)

"transient15-tran" "analysisInst" (
"tran"
"transient15.tran.tran"
"PSF"
""
("time")
"Transient Analysis `transient15': time = (0 s -> 2 ns)"
) PROP(
"data_type" "swept_scalar"
)

"transient16-tran" "analysisInst" (
"tran"
"transient16.tran.tran"
"PSF"
""
("time")
"Transient Analysis `transient16': time = (0 s -> 2 ns)"
) PROP(
"data_type" "swept_scalar"
)

"transient17-tran" "analysisInst" (
"tran"
"transient17.tran.tran"
"PSF"
""
("time")
"Transient Analysis `transient17': time = (0 s -> 2 ns)"
) PROP(
"data_type" "swept_scalar"
)

"transient18-tran" "analysisInst" (
"tran"
"transient18.tran.tran"
"PSF"
""
("time")
"Transient Analysis `transient18': time = (0 s -> 2 ns)"
) PROP(
"data_type" "swept_scalar"
)

"transient19-tran" "analysisInst" (
"tran"
"transient19.tran.tran"
"PSF"
""
("time")
"Transient Analysis `transient19': time = (0 s -> 2 ns)"
) PROP(
"data_type" "swept_scalar"
)

"transient20-tran" "analysisInst" (
"tran"
"transient20.tran.tran"
"PSF"
""
("time")
"Transient Analysis `transient20': time = (0 s -> 2 ns)"
) PROP(
"data_type" "swept_scalar"
)

"transient21-tran" "analysisInst" (
"tran"
"transient21.tran.tran"
"PSF"
""
("time")
"Transient Analysis `transient21': time = (0 s -> 2 ns)"
) PROP(
"data_type" "swept_scalar"
)

"transient22-tran" "analysisInst" (
"tran"
"transient22.tran.tran"
"PSF"
""
("time")
"Transient Analysis `transient22': time = (0 s -> 2 ns)"
) PROP(
"data_type" "swept_scalar"
)

"transient23-tran" "analysisInst" (
"tran"
"transient23.tran.tran"
"PSF"
""
("time")
"Transient Analysis `transient23': time = (0 s -> 2 ns)"
) PROP(
"data_type" "swept_scalar"
)

"transient24-tran" "analysisInst" (
"tran"
"transient24.tran.tran"
"PSF"
""
("time")
"Transient Analysis `transient24': time = (0 s -> 2 ns)"
) PROP(
"data_type" "swept_scalar"
)

"transient25-tran" "analysisInst" (
"tran"
"transient25.tran.tran"
"PSF"
""
("time")
"Transient Analysis `transient25': time = (0 s -> 2 ns)"
) PROP(
"data_type" "swept_scalar"
)

"transient26-tran" "analysisInst" (
"tran"
"transient26.tran.tran"
"PSF"
""
("time")
"Transient Analysis `transient26': time = (0 s -> 2 ns)"
) PROP(
"data_type" "swept_scalar"
)

"transient27-tran" "analysisInst" (
"tran"
"transient27.tran.tran"
"PSF"
""
("time")
"Transient Analysis `transient27': time = (0 s -> 2 ns)"
) PROP(
"data_type" "swept_scalar"
)

"transient28-tran" "analysisInst" (
"tran"
"transient28.tran.tran"
"PSF"
""
("time")
"Transient Analysis `transient28': time = (0 s -> 2 ns)"
) PROP(
"data_type" "swept_scalar"
)

"transient29-tran" "analysisInst" (
"tran"
"transient29.tran.tran"
"PSF"
""
("time")
"Transient Analysis `transient29': time = (0 s -> 2 ns)"
) PROP(
"data_type" "swept_scalar"
)

"transient30-tran" "analysisInst" (
"tran"
"transient30.tran.tran"
"PSF"
""
("time")
"Transient Analysis `transient30': time = (0 s -> 2 ns)"
) PROP(
"data_type" "swept_scalar"
)

"transient31-tran" "analysisInst" (
"tran"
"transient31.tran.tran"
"PSF"
""
("time")
"Transient Analysis `transient31': time = (0 s -> 2 ns)"
) PROP(
"data_type" "swept_scalar"
)

"transient32-tran" "analysisInst" (
"tran"
"transient32.tran.tran"
"PSF"
""
("time")
"Transient Analysis `transient32': time = (0 s -> 2 ns)"
) PROP(
"data_type" "swept_scalar"
)

"transient33-tran" "analysisInst" (
"tran"
"transient33.tran.tran"
"PSF"
""
("time")
"Transient Analysis `transient33': time = (0 s -> 2 ns)"
) PROP(
"data_type" "swept_scalar"
)

"transient34-tran" "analysisInst" (
"tran"
"transient34.tran.tran"
"PSF"
""
("time")
"Transient Analysis `transient34': time = (0 s -> 2 ns)"
) PROP(
"data_type" "swept_scalar"
)

"transient35-tran" "analysisInst" (
"tran"
"transient35.tran.tran"
"PSF"
""
("time")
"Transient Analysis `transient35': time = (0 s -> 2 ns)"
) PROP(
"data_type" "swept_scalar"
)

"transient36-tran" "analysisInst" (
"tran"
"transient36.tran.tran"
"PSF"
""
("time")
"Transient Analysis `transient36': time = (0 s -> 2 ns)"
) PROP(
"data_type" "swept_scalar"
)

"transient37-tran" "analysisInst" (
"tran"
"transient37.tran.tran"
"PSF"
""
("time")
"Transient Analysis `transient37': time = (0 s -> 2 ns)"
) PROP(
"data_type" "swept_scalar"
)

"transient38-tran" "analysisInst" (
"tran"
"transient38.tran.tran"
"PSF"
""
("time")
"Transient Analysis `transient38': time = (0 s -> 2 ns)"
) PROP(
"data_type" "swept_scalar"
)

"transient39-tran" "analysisInst" (
"tran"
"transient39.tran.tran"
"PSF"
""
("time")
"Transient Analysis `transient39': time = (0 s -> 2 ns)"
) PROP(
"data_type" "swept_scalar"
)

"transient40-tran" "analysisInst" (
"tran"
"transient40.tran.tran"
"PSF"
""
("time")
"Transient Analysis `transient40': time = (0 s -> 2 ns)"
) PROP(
"data_type" "swept_scalar"
)

"transient41-tran" "analysisInst" (
"tran"
"transient41.tran.tran"
"PSF"
""
("time")
"Transient Analysis `transient41': time = (0 s -> 2 ns)"
) PROP(
"data_type" "swept_scalar"
)

"transient42-tran" "analysisInst" (
"tran"
"transient42.tran.tran"
"PSF"
""
("time")
"Transient Analysis `transient42': time = (0 s -> 2 ns)"
) PROP(
"data_type" "swept_scalar"
)

"transient43-tran" "analysisInst" (
"tran"
"transient43.tran.tran"
"PSF"
""
("time")
"Transient Analysis `transient43': time = (0 s -> 2 ns)"
) PROP(
"data_type" "swept_scalar"
)

"transient44-tran" "analysisInst" (
"tran"
"transient44.tran.tran"
"PSF"
""
("time")
"Transient Analysis `transient44': time = (0 s -> 2 ns)"
) PROP(
"data_type" "swept_scalar"
)

"transient45-tran" "analysisInst" (
"tran"
"transient45.tran.tran"
"PSF"
""
("time")
"Transient Analysis `transient45': time = (0 s -> 2 ns)"
) PROP(
"data_type" "swept_scalar"
)

"transient46-tran" "analysisInst" (
"tran"
"transient46.tran.tran"
"PSF"
""
("time")
"Transient Analysis `transient46': time = (0 s -> 2 ns)"
) PROP(
"data_type" "swept_scalar"
)

"transient47-tran" "analysisInst" (
"tran"
"transient47.tran.tran"
"PSF"
""
("time")
"Transient Analysis `transient47': time = (0 s -> 2 ns)"
) PROP(
"data_type" "swept_scalar"
)

"transient48-tran" "analysisInst" (
"tran"
"transient48.tran.tran"
"PSF"
""
("time")
"Transient Analysis `transient48': time = (0 s -> 2 ns)"
) PROP(
"data_type" "swept_scalar"
)

"transient49-tran" "analysisInst" (
"tran"
"transient49.tran.tran"
"PSF"
""
("time")
"Transient Analysis `transient49': time = (0 s -> 2 ns)"
) PROP(
"data_type" "swept_scalar"
)

"transient50-tran" "analysisInst" (
"tran"
"transient50.tran.tran"
"PSF"
""
("time")
"Transient Analysis `transient50': time = (0 s -> 2 ns)"
) PROP(
"data_type" "swept_scalar"
)

"transient51-tran" "analysisInst" (
"tran"
"transient51.tran.tran"
"PSF"
""
("time")
"Transient Analysis `transient51': time = (0 s -> 2 ns)"
) PROP(
"data_type" "swept_scalar"
)

"transient52-tran" "analysisInst" (
"tran"
"transient52.tran.tran"
"PSF"
""
("time")
"Transient Analysis `transient52': time = (0 s -> 2 ns)"
) PROP(
"data_type" "swept_scalar"
)

"transient53-tran" "analysisInst" (
"tran"
"transient53.tran.tran"
"PSF"
""
("time")
"Transient Analysis `transient53': time = (0 s -> 2 ns)"
) PROP(
"data_type" "swept_scalar"
)

"transient54-tran" "analysisInst" (
"tran"
"transient54.tran.tran"
"PSF"
""
("time")
"Transient Analysis `transient54': time = (0 s -> 2 ns)"
) PROP(
"data_type" "swept_scalar"
)

"transient55-tran" "analysisInst" (
"tran"
"transient55.tran.tran"
"PSF"
""
("time")
"Transient Analysis `transient55': time = (0 s -> 2 ns)"
) PROP(
"data_type" "swept_scalar"
)

"transient56-tran" "analysisInst" (
"tran"
"transient56.tran.tran"
"PSF"
""
("time")
"Transient Analysis `transient56': time = (0 s -> 2 ns)"
) PROP(
"data_type" "swept_scalar"
)

"transient57-tran" "analysisInst" (
"tran"
"transient57.tran.tran"
"PSF"
""
("time")
"Transient Analysis `transient57': time = (0 s -> 2 ns)"
) PROP(
"data_type" "swept_scalar"
)

"transient58-tran" "analysisInst" (
"tran"
"transient58.tran.tran"
"PSF"
""
("time")
"Transient Analysis `transient58': time = (0 s -> 2 ns)"
) PROP(
"data_type" "swept_scalar"
)

"transient59-tran" "analysisInst" (
"tran"
"transient59.tran.tran"
"PSF"
""
("time")
"Transient Analysis `transient59': time = (0 s -> 2 ns)"
) PROP(
"data_type" "swept_scalar"
)

"transient60-tran" "analysisInst" (
"tran"
"transient60.tran.tran"
"PSF"
""
("time")
"Transient Analysis `transient60': time = (0 s -> 2 ns)"
) PROP(
"data_type" "swept_scalar"
)

"transient61-tran" "analysisInst" (
"tran"
"transient61.tran.tran"
"PSF"
""
("time")
"Transient Analysis `transient61': time = (0 s -> 2 ns)"
) PROP(
"data_type" "swept_scalar"
)

"transient62-tran" "analysisInst" (
"tran"
"transient62.tran.tran"
"PSF"
""
("time")
"Transient Analysis `transient62': time = (0 s -> 2 ns)"
) PROP(
"data_type" "swept_scalar"
)

"transient63-tran" "analysisInst" (
"tran"
"transient63.tran.tran"
"PSF"
""
("time")
"Transient Analysis `transient63': time = (0 s -> 2 ns)"
) PROP(
"data_type" "swept_scalar"
)

"transient64-tran" "analysisInst" (
"tran"
"transient64.tran.tran"
"PSF"
""
("time")
"Transient Analysis `transient64': time = (0 s -> 2 ns)"
) PROP(
"data_type" "swept_scalar"
)

"transient65-tran" "analysisInst" (
"tran"
"transient65.tran.tran"
"PSF"
""
("time")
"Transient Analysis `transient65': time = (0 s -> 2 ns)"
) PROP(
"data_type" "swept_scalar"
)

"transient66-tran" "analysisInst" (
"tran"
"transient66.tran.tran"
"PSF"
""
("time")
"Transient Analysis `transient66': time = (0 s -> 2 ns)"
) PROP(
"data_type" "swept_scalar"
)

"transient67-tran" "analysisInst" (
"tran"
"transient67.tran.tran"
"PSF"
""
("time")
"Transient Analysis `transient67': time = (0 s -> 2 ns)"
) PROP(
"data_type" "swept_scalar"
)

"transient68-tran" "analysisInst" (
"tran"
"transient68.tran.tran"
"PSF"
""
("time")
"Transient Analysis `transient68': time = (0 s -> 2 ns)"
) PROP(
"data_type" "swept_scalar"
)

"transient69-tran" "analysisInst" (
"tran"
"transient69.tran.tran"
"PSF"
""
("time")
"Transient Analysis `transient69': time = (0 s -> 2 ns)"
) PROP(
"data_type" "swept_scalar"
)

"transient70-tran" "analysisInst" (
"tran"
"transient70.tran.tran"
"PSF"
""
("time")
"Transient Analysis `transient70': time = (0 s -> 2 ns)"
) PROP(
"data_type" "swept_scalar"
)

"transient71-tran" "analysisInst" (
"tran"
"transient71.tran.tran"
"PSF"
""
("time")
"Transient Analysis `transient71': time = (0 s -> 2 ns)"
) PROP(
"data_type" "swept_scalar"
)

"transient72-tran" "analysisInst" (
"tran"
"transient72.tran.tran"
"PSF"
""
("time")
"Transient Analysis `transient72': time = (0 s -> 2 ns)"
) PROP(
"data_type" "swept_scalar"
)

"transient73-tran" "analysisInst" (
"tran"
"transient73.tran.tran"
"PSF"
""
("time")
"Transient Analysis `transient73': time = (0 s -> 2 ns)"
) PROP(
"data_type" "swept_scalar"
)

"transient74-tran" "analysisInst" (
"tran"
"transient74.tran.tran"
"PSF"
""
("time")
"Transient Analysis `transient74': time = (0 s -> 2 ns)"
) PROP(
"data_type" "swept_scalar"
)

"transient75-tran" "analysisInst" (
"tran"
"transient75.tran.tran"
"PSF"
""
("time")
"Transient Analysis `transient75': time = (0 s -> 2 ns)"
) PROP(
"data_type" "swept_scalar"
)

END
